<?xml version="1.0" encoding="UTF-8"?>

<!-- generated on sáb 10 nov 2018 12:07:07 -03 by SUMO gui Version 0.32.0
<?xml version="1.0" encoding="UTF-8"?>

<configuration xmlns:xsi="http://www.w3.org/2001/XMLSchema-instance" xsi:noNamespaceSchemaLocation="http://sumo.dlr.de/xsd/sumoConfiguration.xsd">

    <input>
        <net-file value="/home/alpha/master/master/mininet-wifi/mn_wifi/sumo/data/new-york.net.xml"/>
        <route-files value="/home/alpha/master/master/mininet-wifi/mn_wifi/sumo/data/new-york.rou.xml"/>
        <additional-files value="/home/alpha/master/master/mininet-wifi/mn_wifi/sumo/data/new-york.poly.xml"/>
    </input>

    <output>
        <tripinfo-output value="/home/alpha/master/master/mininet-wifi/mn_wifi/sumo/data/maptripinfo.out.xml"/>
    </output>

    <time>
        <begin value="0"/>
        <end value="1000"/>
        <step-length value="0.1"/>
    </time>

    <processing>
        <time-to-teleport value="100"/>
    </processing>

    <report>
        <xml-validation value="never"/>
        <no-step-log value="true"/>
    </report>

    <traci_server>
        <remote-port value="8813"/>
        <num-clients value="1"/>
    </traci_server>

    <gui_only>
        <tracker-interval value="0.1"/>
    </gui_only>

</configuration>
-->

<tripinfos xmlns:xsi="http://www.w3.org/2001/XMLSchema-instance" xsi:noNamespaceSchemaLocation="http://sumo.dlr.de/xsd/tripinfo_file.xsd">
</tripinfos>
